/*--------------------------------*- C++ -*----------------------------------*\
  =========                 |
  \\      /  F ield         | OpenFOAM: The Open Source CFD Toolbox
   \\    /   O peration     | Website:  https://openfoam.org
    \\  /    A nd           | Version:  13
     \\/     M anipulation  |
\*---------------------------------------------------------------------------*/
FoamFile
{
    format      ascii;
    class       volScalarField;
    location    "0";
    object      thicknessFraction;
}
// * * * * * * * * * * * * * * * * * * * * * * * * * * * * * * * * * * * * * //

dimensions      [];

internalField   uniform 0;

boundaryField
{
    domain
    {
        type            fixedValue;
        value           uniform 0;
    }
    wall_aorta
    {
        type            fixedValue;
        value           nonuniform List<scalar> 
5988
(
0
0
0
0
0
0
0
0
0
0
0
0
0
0
0
0
0
0
0
0
0
0
0
0
0
0
0
0
0
0
0
0
0
0
0
0
0
0
0
0
0
0
0
0
0
0
0
0
0
0
0
0
0
0
0
0
0
0
0
0
0
0
0
0
0
0
0
0
0
0
0
0
0
0
0
0
0
0
0
0
0
0
0
0
0
0
0
0
0
0
0
0
0
0
0
0
0
0
0
0
0
0
0
0
0
0
0
0
0
0
0
0
0
0
0
0
0
0
0
0
0
0
0
0
0
0
0
0
0
0
0
0
0
0
0
0
0
0
0
0
0
0
0
0
0
0
0
0
0
0
0
0
0
0
0
0
0
0
0
0
0
0
0
0
0
0
0
0
0
0
0
0
0
0
0
0
0
0
0
0
0
0
0
0
0
0
0
0
0
0
0
0
0
0
0
0
0
0
0
0
0
0
0
0
0
0
0
0
0
0
0
0
0
0
0
0
0
0
0
0
0
0
0
0
0
0
0
0
0
0
0
0
0
0
0
0
0
0
0
0
0
0
0
0
0
0
0
0
0
0
0
0
0
0
0
0
0
0
0
0
0
0
0
0
0
0
0
0
0.0607919
0.227716
0.259884
0.371536
0.581669
0.679725
0.625801
0.708227
0.876903
0.931594
0.955935
0.948273
0.968459
0.965333
0.992696
0.992259
0.997385
0.99689
0.997809
0.995497
0.99805
0.998922
0.998859
0.999822
0.999866
0.999962
0.999964
0.999956
0.999981
0.999989
0.999999
0.999997
0.999999
1
1
1
1
1
1
1
1
1
1
1
1
1
1
1
1
1
1
1
1
1
1
1
1
1
1
1
1
1
1
1
1
1
1
1
1
1
1
1
1
1
1
1
1
1
1
1
1
1
1
1
1
1
1
1
1
1
1
1
1
1
1
1
1
1
1
1
1
1
1
1
1
1
1
1
1
1
1
1
1
1
1
1
1
1
1
1
1
1
1
1
1
1
1
1
1
1
1
1
1
1
1
1
1
1
1
1
1
1
1
1
1
1
1
1
1
1
1
1
1
1
1
1
1
1
1
1
1
1
1
1
1
1
1
1
1
1
1
1
1
1
1
1
1
1
1
1
1
1
1
1
1
1
1
1
1
1
1
1
1
1
1
1
1
1
1
1
1
1
1
1
1
1
1
1
1
1
1
1
1
1
1
1
1
1
1
1
1
1
1
1
1
1
1
1
1
1
1
1
1
1
1
1
1
1
1
1
1
1
1
1
1
1
1
1
1
1
1
1
1
1
1
1
1
1
1
1
1
1
1
1
1
1
1
1
1
1
1
1
1
1
1
1
1
1
1
1
1
0.182986
0.423334
1
1
1
1
1
1
1
1
1
1
1
1
1
0.186614
0.976311
0.955896
0.895573
0.864622
0.575082
1
1
1
1
1
1
1
1
1
1
1
1
0.951527
0.765861
0.368286
0.999726
0.998404
0.989506
0.964484
0.281462
1
1
1
1
1
1
1
1
1
1
0.996522
0.968713
0.834378
0.999999
0.999996
0.999994
0.999756
0.996418
0.942158
0.728461
1
0.999999
1
1
1
1
1
1
0.999999
0.999904
0.997074
0.964191
1
0.717829
1
0.69273
1
0.808896
1
0.971324
0.999998
0.999829
0.999753
0.9999
0.999969
0.999995
1
1
1
0.999999
0.999898
0.985677
0.983921
1
1
0.999999
0.998406
0.996594
0.999418
0.999971
0.999989
0.999993
1
1
1
0.999964
0.99998
1
1
0.999988
1
1
1
0.99998
1
0.999874
1
0.999988
1
1
1
1
0.356359
0.160057
0.376154
0.47949
0.424797
0.945393
1
0.999957
0.998752
0.996071
1
0.976411
1
1
0.0572595
0.46371
0.998617
0.983743
0.702754
0.418581
0.814765
1
1
1
1
1
1
0.382109
0.410939
0.70961
0.354748
0.554108
0.190801
0.999707
0.999999
1
0.995733
0.999915
1
0.999999
0.934031
0.970289
0.979079
0.926362
0.903616
0.916345
0.979729
0.777343
0.410559
1
0.999998
0.999992
0.993626
0.999995
1
1
1
0.999429
0.998641
0.994927
0.997412
0.839172
0.999663
0.999996
0.999998
0.999683
1
0.999822
1
1
1
0.999999
1
0.999995
0.999999
0.999987
0.976256
0.957291
0.975098
0.932121
0.937072
0.998021
0.999996
0.999914
0.997876
0.999904
0.999999
1
1
0.999999
1
0.999949
1
1
0.999977
1
0.999944
1
0.999999
0.999798
0.999995
0.999997
0.999992
0.999998
0.651517
0.660565
0.975481
0.939946
0.477883
0.983488
0.761148
0.996334
0.959804
0.999956
0.999998
0.992224
0.999991
0.991834
0.998915
0.995187
0.998906
0.999184
0.83157
0.186653
0.513787
0.662164
0.849258
0.240294
0.793936
0.999949
0.89499
0.759573
0.882545
0.93295
0.947234
0.6274
0.58886
0.809071
0.403443
0.941752
0.273642
0.598319
0.139369
0.658536
0.982412
0.777791
0.929242
0.0977365
0.822179
0.202221
0.95011
0.974332
0.188386
0.653301
0.777969
0.346593
0.874967
0.14486
0.60215
0.195109
0.94812
0.842875
0.357968
0.946588
0.761725
0.806653
0.965795
0.569072
0.944093
0.843368
0.999931
0.0628116
0.321828
0.226725
0.989906
0.395497
0.997472
0.993225
0.841078
0.994384
0.634323
0.881869
0.988447
0.999107
0.981709
0.747594
1
0.903203
0.999999
0.276992
0.790072
0.662266
0.189772
0.993655
0.960269
0.981212
0.999965
0.959413
0.999791
0.999276
0.999999
0.882023
1
0.817057
0.362305
1
0.351626
0.839033
0.999135
0.984026
0.999999
0.776761
0.999916
0.996614
1
1
0.112104
0.970829
0.610985
0.999926
0.997682
0.773168
0.998237
1
0.999731
1
0.998219
1
0.168427
0.20021
0.998225
0.749088
0.999999
0.999911
0.967366
0.999941
1
0.999996
1
0.999963
1
0.753928
0.862403
0.999969
0.958026
1
0.999999
0.993447
1
1
1
1
1
1
0.973079
0.990858
0.999848
0.99785
0.999984
0.999899
0.999642
1
1
1
0.999983
0.999978
0.999982
0.995094
0.994006
0.9939
0.999322
0.99846
0.994819
0.999974
0.99999
0.999989
0.99999
0.999048
0.998722
0.998927
0.926267
0.897944
0.907895
0.985075
0.95934
0.907466
0.999
0.999472
0.999468
0.999475
0.983918
0.978849
0.978562
0.473279
0.279355
0.414105
0.905861
0.642958
0.373697
0.989565
0.991847
0.991379
0.991488
0.85462
0.769192
0.199393
0.794234
0.952415
0.93999
0.925616
0.937964
0.934392
0.13399
0.0731811
0.172372
0.208974
0.222702
0.225954
0.413532
0.748618
0.265186
0.703966
0.66067
0.711425
0.710786
0.788869
0.515605
0.715806
0.786473
0.519722
0.823927
0.609807
0.830937
0.852748
0.686805
0.871415
0.90544
0.923672
0.824551
0.901932
0.975649
0.974901
0.925136
0.983005
0.989057
0.931116
0.988585
0.981895
0.980572
0.929295
0.97888
0.983438
0.985885
0.95784
0.988296
0.99089
0.973496
0.992747
0.99448
0.989651
0.986711
0.996144
0.995818
0.99703
0.999439
0.999613
0.997836
0.999564
0.998534
0.999766
0.999828
0.999868
0.999151
0.999867
0.999904
0.999937
0.999959
0.999946
0.999965
0.999997
0.999998
0.999986
0.999999
0.999999
1
0.999993
0.999999
1
1
0.999998
1
1
1
1
1
1
1
1
1
1
1
1
1
1
1
1
1
1
1
1
1
1
1
1
1
1
1
1
1
1
1
1
1
1
1
1
1
1
1
1
1
1
1
1
1
1
1
1
1
1
1
1
1
1
1
1
1
1
1
1
1
1
1
1
1
1
1
1
1
1
1
1
1
1
1
1
1
1
1
1
1
1
1
1
1
1
1
1
1
1
1
1
1
1
1
1
1
1
1
1
1
1
1
1
1
1
1
1
1
1
1
1
1
1
1
1
1
1
1
1
1
1
1
1
1
1
1
1
1
1
1
1
1
1
1
1
1
1
1
1
1
1
1
1
1
1
1
1
1
1
1
1
1
1
1
1
1
1
1
1
1
1
1
1
1
1
1
1
1
1
1
1
1
1
1
1
1
1
1
1
1
1
1
1
1
1
1
1
1
1
1
1
1
1
1
1
1
1
1
1
1
1
1
1
1
1
1
1
1
1
1
1
1
1
1
1
1
1
1
1
1
1
1
1
1
1
1
1
1
1
1
1
1
1
1
1
1
1
1
1
1
1
1
1
1
1
1
1
1
1
1
0.18957
0.165221
1
1
1
1
1
1
1
1
1
1
1
1
1
0.256291
0.551002
0.728506
0.201964
0.64455
0.336743
1
1
1
1
1
1
1
1
0.0696077
0.522017
0.30175
0.0857313
0.957212
0.94186
0.989904
1
1
1
1
1
0.20153
0.676394
0.519262
1
1
1
0.999983
0.999999
0.999233
0.99989
0.999989
0.999991
1
0.999999
0.999999
1
1
0.999995
0.999994
1
1
0.91644
1
0.999917
0.999919
0.99923
0.999256
0.997916
0.999999
0.999609
0.995128
0.975611
0.976554
0.98523
0.928515
1
1
1
1
1
1
1
1
1
1
1
1
1
1
0.912037
0.72714
0.72843
0.814351
0.53769
0.973851
1
1
1
1
1
1
1
1
0.261086
0.220108
0.28626
0.33032
0.561514
1
1
0.999995
0.999961
0.996242
0.977937
0.959124
1
1
1
1
1
1
1
0.0662656
0.157278
0.178326
0.131781
1
0.999988
1
1
0.998657
1
1
0.382193
0.770121
0.775941
0.510727
0.75082
0.80024
0.716718
0.876476
0.550211
0.827885
0.801875
0.883131
0.785574
0.791371
0.381021
0.777991
0.999987
0.999943
0.999561
0.996755
0.999999
1
1
1
1
0.989991
0.990414
0.995152
0.920961
0.982419
0.938923
0.983589
0.996944
0.997536
0.950646
0.991001
0.993453
0.923892
0.992345
0.986417
0.980575
0.99999
1
0.999999
0.999926
1
0.999999
0.999993
0.999995
0.99996
0.999932
0.999901
0.999999
1
0.999999
0.999999
0.999968
0.999834
0.998043
0.999936
0.997866
0.998109
0.999851
0.999246
0.999929
0.999976
0.99937
0.998786
0.999938
0.998861
0.999884
0.999057
0.99983
0.999878
0.999228
0.999856
0.998892
0.99961
0.999451
0.999996
1
0.999999
0.999997
0.999993
1
1
1
1
1
1
1
1
1
1
0.999994
0.999996
1
1
1
1
0.999999
0.999997
1
0.999999
0.99999
0.999999
0.878194
0.868736
0.799499
0.877983
0.871605
0.859575
0.805106
0.786683
0.714607
0.715041
0.903327
0.999812
0.999962
0.998566
0.996908
0.999559
0.999968
1
0.999997
0.999995
0.999988
0.999779
0.99957
0.998384
1
1
1
1
1
1
1
1
1
0.999996
0.999761
0.997704
1
1
1
1
1
1
1
0.999997
0.999876
0.999939
0.999996
0.999927
0.999872
0.169774
0.261176
0.850218
0.971871
0.923056
0.903958
0.0922842
0.829785
0.421612
0.813409
0.938996
0.74922
0.992508
0.930587
0.376095
0.989361
0.963548
0.911777
1
0.999999
0.999939
0.999935
0.999176
0.998988
0.993527
0.241118
0.257144
0.232887
0.151361
0.213835
0.182791
0.0707893
0.331523
0.352155
0.15299
0.390172
0.818817
0.743502
0.377717
0.540078
0.696534
0.278388
0.863237
0.841496
0.182246
0.723544
0.243906
0.367823
0.71797
0.346511
0.96493
0.895735
0.999913
0.999261
0.993434
0.997522
0.98981
0.969295
0.888896
0.911436
0.634516
0.913049
0.615026
0.863023
0.85534
0.527194
0.835299
0.784671
0.671072
0.200206
0.587533
0.194737
0.593445
0.536192
0.427179
0.1764
0.984453
0.0716203
0.994047
0.61173
0.501511
0.410691
0.896976
0.242533
0.076311
0.347972
0.976857
0.902679
0.90798
0.867331
0.530478
0.379222
0.983168
0.997101
0.959215
0.970897
0.997518
0.985942
0.997624
0.997307
0.595471
0.824421
0.989387
0.993419
0.999091
0.506531
0.472222
0.741417
0.835375
0.642928
0.900301
0.918641
0.827739
0.656307
0.259592
0.0869547
0.0725224
0.527548
0.333631
0.733497
0.726382
0.111691
0.876094
0.836157
0.947146
0.6446
0.391801
0.999689
0.999729
0.999957
0.893039
0.97371
0.673345
0.881906
0.835444
0.968511
0.942788
0.982356
0.92137
0.98505
0.9678
0.283782
0.35728
0.999434
0.999883
0.988838
0.904493
0.811071
0.239029
0.799735
0.9694
0.999683
0.690348
0.898642
0.708036
0.997457
0.99986
0.999988
0.999999
1
1
0.821567
0.974447
0.964135
0.953226
0.91799
1
1
1
0.682511
0.931914
0.846134
0.626615
0.999985
1
0.999999
0.0846832
0.39136
0.0922374
0.999984
0.992731
0.999911
0.999962
0.999995
0.797218
0.943721
0.775393
0.38075
0.291812
0.523477
0.949702
0.989889
0.999989
0.999987
0.999826
0.997949
0.999849
0.998857
1
1
0.999999
0.966716
0.865945
1
1
1
0.303427
0.459771
0.210843
0.0797903
0.0830715
1
1
1
0.318762
0.999754
0.999999
0.999978
0.999999
0.974155
0.893368
0.965015
0.995939
0.703585
0.955138
0.999829
0.999458
0.999982
0.999851
0.999205
1
1
1
0.985287
0.996261
0.955167
0.992885
1
1
1
1
1
1
0.999999
0.999829
0.999958
0.999999
0.999996
1
0.992431
0.998433
0.999597
0.983038
0.996742
0.996596
0.997779
1
1
0.999974
1
0.999997
1
1
1
0.999252
0.999692
1
1
1
1
0.0673373
0.303578
0.49325
0.59778
0.265497
0.645529
0.676364
1
0.089398
0.0922659
0.999994
1
1
1
1
0.999769
0.999976
0.999994
0.999489
0.999944
0.999942
1
1
0.999967
1
1
1
1
1
1
1
1
0.999999
0.999997
1
1
1
1
1
0.617086
0.83988
0.827438
0.907294
0.943234
0.884905
0.959428
0.968343
1
0.278455
0.746197
0.699268
0.752141
1
1
1
1
1
0.999998
1
1
1
0.999995
1
1
1
0.999999
1
1
0.999999
1
0.999999
0.999998
1
0.999998
0.999999
0.999998
1
0.999998
0.999999
1
0.999999
0.948285
0.986887
0.985671
0.993486
0.996401
0.993313
0.997569
0.998354
0.999993
0.999998
0.898613
0.977319
0.972974
0.978481
1
0.999999
1
0.999999
0.999999
1
0.999999
0.999999
1
0.999999
0.999999
1
0.999999
1
0.999985
0.999863
0.999976
0.999834
0.999791
0.999979
0.999828
0.999851
0.99997
0.99975
0.999804
0.99998
0.999983
0.999828
0.999847
0.999967
0.999837
0.999714
0.995669
0.989734
0.993839
0.980477
0.972434
0.995923
0.972397
0.980527
0.999328
0.997761
0.994242
0.995538
0.998109
0.999094
0.999992
0.999929
0.999989
0.999926
0.999911
0.999988
0.9999
0.999914
0.999987
0.999894
0.999891
0.999888
0.999893
0.999095
0.995584
0.998662
0.99471
0.993586
0.998932
0.994996
0.995476
0.99391
0.999001
0.99482
0.994973
0.994634
0.991946
0.961224
0.886324
0.898076
0.780352
0.700109
0.926248
0.699907
0.780826
0.984625
0.988863
0.959715
0.995317
0.954098
0.984934
0.994283
0.999546
0.997853
0.99944
0.997654
0.997362
0.999388
0.997208
0.997599
0.997547
0.999331
0.996992
0.996943
0.99701
0.99937
0.997216
0.981905
0.948664
0.952991
0.927432
0.979934
0.979575
0.934849
0.930019
0.928261
0.91881
0.753853
0.64543
0.279466
0.255653
0.475765
0.261894
0.88754
0.882362
0.963858
0.846291
0.934598
0.960945
0.992503
0.981048
0.99059
0.977366
0.974683
0.990404
0.975173
0.979637
0.981813
0.989492
0.972623
0.972753
0.974378
0.852355
0.208159
0.998051
0.99959
0.99976
0.99973
0.999981
1
1
1
1
1
1
1
1
1
1
1
1
1
1
1
1
1
1
1
1
1
1
1
1
1
1
1
1
1
1
1
1
1
1
1
1
1
1
1
1
1
1
1
1
1
1
1
1
1
1
1
1
0.999988
1
0.999999
0.999411
0.999988
0.999895
0.998985
0.999981
0.999876
1
1
1
1
0.998872
1
0.999988
0.999998
0.99996
0.999929
0.999992
0.999993
0.999848
0.999809
0.998459
0.998313
0.999997
0.969494
0.937062
0.884146
0.944557
0.967392
0.974359
0.999545
0.999925
0.999942
0.999703
0.991539
0.995344
0.999586
0.997828
0.748859
0.76959
0.934714
1
1
1
1
1
1
1
1
1
1
1
1
1
1
1
1
1
1
1
1
1
1
1
1
1
1
1
1
1
1
0.999941
0.999489
0.999981
0.999733
0.999823
0.99535
1
1
1
1
1
1
1
1
1
1
1
1
1
1
1
1
1
1
1
1
1
1
1
1
1
1
1
1
1
1
1
1
1
1
1
1
1
1
1
1
1
1
1
1
1
1
1
1
1
1
1
1
1
1
1
1
1
1
1
1
1
1
1
1
1
1
1
1
1
1
1
1
1
1
1
1
1
1
1
1
1
1
1
1
1
1
1
1
1
1
1
1
1
1
1
1
1
1
1
1
1
1
1
1
1
1
1
1
1
1
1
1
1
1
1
1
1
1
1
1
1
1
1
1
1
1
1
1
1
1
1
1
1
1
1
1
1
1
1
1
1
1
1
1
1
1
1
1
1
1
1
1
1
0.54429
0.903453
0.861907
0.237677
0.835269
0.613501
0.191788
0.694954
0.718303
1
1
1
1
1
1
1
1
1
1
1
1
1
1
1
1
0.936503
0.712107
0.992111
0.827964
0.92194
0.976362
0.981405
0.99704
0.898935
0.987079
0.978944
0.886221
0.979081
0.96999
1
1
1
1
1
1
1
1
1
0.9795
0.87917
0.984991
0.958793
0.601002
0.906726
0.815644
0.999683
0.99949
0.998846
0.999955
0.999908
0.999398
0.999939
0.999956
0.99848
1
1
1
1
1
1
1
1
1
1
1
0.988554
0.999371
0.997285
0.924127
0.990091
0.968259
0.913106
0.728504
1
0.999999
1
1
0.999998
1
0.999917
0.999998
0.999988
0.999978
1
0.999998
0.999999
1
1
1
1
1
0.988363
0.999334
0.997007
1
1
1
1
1
1
1
1
0.998129
1
1
1
1
1
0.999987
1
0.999999
0.99999
1
1
0.990196
0.999353
1
1
1
1
1
1
1
1
1
1
1
1
1
1
1
1
1
1
1
0.999987
0.999646
0.99999
0.999684
1
1
1
1
0.999686
0.999689
0.998492
0.994652
0.9842
0.98737
0.91709
0.880764
1
1
1
1
1
1
1
1
0.999779
0.994077
0.915178
0.757448
0.419275
0.240183
0.450681
1
1
1
1
1
0.944651
0.979417
0.917371
1
0.924478
0.999986
0.999925
1
0.999989
0.987893
0.98271
0.974549
0.833267
0.96868
0.738413
0.997841
0.998522
0.988331
0.990146
0.999259
0.997808
0.941263
0.841159
0.927696
0.978428
0.994951
0.99609
0.963133
0.995049
0.982071
0.999994
1
0.999992
0.999907
0.262937
0.0698698
0.591266
0.16447
0.362312
0.96888
1
1
1
1
1
1
1
1
1
1
1
1
1
1
1
1
1
1
1
1
1
1
1
1
1
0.999817
1
1
1
1
1
1
1
1
0.257583
0.999999
1
0.458264
0.880014
0.785995
0.885841
0.999865
0.999896
0.999925
0.965751
0.984816
0.999234
0.723058
1
1
1
0.152882
0.169053
0.329536
0.24663
0.251126
0.504018
0.822795
0.56058
0.402761
0.818545
0.87057
0.878714
0.89469
0.911322
0.917268
0.978639
0.97827
0.995883
0.999305
0.99956
0.999053
0.999919
0.999957
0.999981
0.999993
1
0.999999
1
1
1
1
1
1
1
1
1
1
1
1
1
1
1
1
1
1
1
1
1
1
1
1
1
1
1
1
1
1
1
1
1
1
1
1
1
1
1
1
1
1
1
1
1
1
1
1
1
1
1
1
1
1
1
1
1
1
1
1
1
1
1
1
1
1
1
1
1
1
1
1
1
1
1
1
1
1
1
1
1
1
1
1
1
1
1
1
1
1
1
1
1
1
1
1
1
1
1
1
1
1
1
1
1
1
1
1
1
1
1
1
1
1
1
1
1
1
1
1
1
1
1
1
1
1
1
1
1
1
1
1
1
1
1
1
1
1
1
1
1
1
1
1
1
1
1
1
1
1
1
1
1
1
1
1
1
1
1
1
1
1
1
1
1
1
1
1
1
1
1
1
1
1
1
1
1
1
1
1
1
1
1
1
1
1
1
1
1
1
1
1
1
1
1
1
1
0.664417
0.452401
0.218835
1
1
1
1
0.632868
0.961425
0.897969
0.173162
1
1
1
1
1
1
1
0.994961
0.99867
0.0675102
0.999188
0.996945
0.62717
0.839478
1
1
1
1
1
1
1
1
1
1
0.999854
0.226673
0.999994
0.999987
0.999959
0.343127
0.999999
0.999999
0.999999
1
1
1
1
1
1
1
1
1
1
1
1
1
0.912283
0.99991
0.999855
0.999752
0.999849
0.99992
0.999983
0.99957
0.999996
1
1
1
1
1
1
1
0.997259
1
0.988728
0.986468
1
1
1
1
0.994943
0.994482
0.992165
0.986867
0.99186
0.995188
0.984428
0.99999
0.999989
1
1
0.999999
0.999886
0.999761
0.999679
0.999841
0.999956
1
1
1
1
1
1
1
0.902311
0.86666
0.635292
0.883163
0.91563
0.915868
0.743857
0.806377
0.930793
0.898075
0.99437
0.983541
0.986624
0.999024
0.999156
1
0.999983
0.999954
0.999978
0.999926
0.999053
1
1
0.999771
1
1
1
1
1
1
1
0.239191
0.866561
0.932887
0.782743
0.993123
1
1
0.991555
0.998683
1
1
0.999945
1
1
1
0.999998
0.999979
0.721439
1
0.651502
1
1
0.976527
1
1
1
0.999981
1
0.669046
0.210858
0.986066
0.839735
0.703658
1
0.437914
1
1
0.924081
1
1
1
1
1
1
1
0.946985
0.943828
0.942291
0.966822
0.341034
0.883156
0.498333
0.999988
0.999992
0.999987
1
1
0.990677
0.998985
0.999715
0.999795
0.999758
0.998735
0.997226
0.993708
0.992401
0.932213
0.965591
0.999981
0.999982
0.873915
0.998182
0.996885
0.999038
0.999922
0.999926
0.999971
1
1
1
0.999966
0.999998
0.999929
0.999997
0.999999
0.999986
0.999967
0.999998
0.999892
0.999858
0.999783
0.841544
0.936244
0.97557
0.99954
0.966685
0.793034
0.945998
0.990209
0.999988
0.999479
0.992364
0.990234
0.993323
0.999999
1
1
1
0.999998
0.999841
0.999947
1
1
0.999993
0.999973
0.999989
0.999998
0.2562
0.359714
0.466974
0.395565
0.380027
0.240785
0.972615
0.838101
0.999855
0.997224
0.979868
0.980396
1
0.999998
1
0.999284
0.99605
0.987243
0.999964
0.999636
0.999597
0.999631
0.58963
0.349789
0.57603
0.776975
0.356626
0.902422
0.207569
0.873576
0.944344
0.745231
0.999796
0.999603
0.999659
0.999367
0.999065
0.989102
0.967549
0.809807
0.392716
0.94411
0.949366
0.397041
0.708127
0.724272
0.329232
0.0867573
0.599299
0.656076
0.543874
0.983312
0.952475
0.263123
0.407285
0.710261
0.99187
0.973766
0.933598
0.824075
0.99793
0.374553
0.998668
0.430214
0.369663
0.326361
0.299443
0.429147
0.956064
0.956767
0.860642
0.40053
0.730763
0.999647
0.998946
0.997825
0.999994
0.99989
0.999994
0.317635
0.711123
0.451946
0.599188
0.960173
0.308957
0.325355
0.995596
0.982842
0.956747
0.644435
0.62795
0.913666
0.836737
0.821244
0.554493
0.935529
0.766114
0.877149
0.981487
0.514782
0.999847
0.999346
0.999033
0.999539
0.99908
0.999916
0.999897
0.796126
0.980927
0.989041
0.608052
0.651556
0.327252
0.541394
0.999982
0.399297
0.649182
0.38218
0.998263
0.999999
0.816196
0.932194
0.99993
0.997142
0.90115
0.921747
1
0.163211
0.999984
0.983872
1
0.988599
0.99436
1
0.999997
0.999997
0.999847
1
0.99238
0.993918
1
1
0.239483
0.866968
1
0.999508
1
0.99968
0.999852
1
1
0.999988
0.999998
0.999773
0.999841
1
1
0.402507
0.40931
0.650982
0.945763
1
0.999995
1
0.999998
1
1
1
1
0.999998
0.999987
1
0.914465
0.917303
0.950511
0.993336
1
1
1
0.999981
0.99997
0.999937
0.999013
0.999915
0.999674
0.994711
0.99566
0.99767
0.999781
0.999992
0.999987
0.999994
0.999986
0.999987
0.999988
0.999986
0.998914
0.998456
0.998438
0.998928
0.996942
0.977199
0.996232
0.984577
0.998512
0.999197
0.999534
0.999515
0.999346
0.999615
0.999332
0.999447
0.980651
0.973617
0.973825
0.957925
0.824362
0.952996
0.900788
0.982885
0.987482
0.992098
0.991536
0.989569
0.992159
0.989916
0.990728
0.991714
0.991335
0.828806
0.750003
0.790914
0.735116
0.728678
0.498256
0.63348
0.762472
0.766992
0.899144
0.896217
0.939024
0.931926
0.917213
0.928156
0.925806
0.937333
0.154159
0.321647
0.0615449
0.377917
0.0940415
0.130067
0.671981
0.544068
0.218984
0.949007
0.927259
0.267001
0.132816
0.193395
0.144427
0.328055
0.469134
0.227773
0.243937
0.217356
0.554151
0.603956
0.636085
0.0695296
0.357271
0.214337
0.505798
0.586672
0.646065
0.70868
0.294032
0.723766
0.750088
0.762939
0.886738
0.944532
0.921943
0.852533
0.958124
0.965548
0.717662
0.919967
0.90815
0.870259
0.969363
0.976858
0.889069
0.972949
0.969085
0.943365
0.97827
0.980672
0.993226
0.996538
0.995472
0.990914
0.998702
0.998536
0.9987
0.995014
0.998812
0.999248
0.994589
0.999465
0.9996
0.999565
0.999706
0.999534
0.999955
0.99989
0.999991
0.999985
0.999815
0.999982
0.999917
0.999991
0.999995
0.999949
0.999982
0.999998
0.999999
0.999994
0.999999
1
0.999971
0.999997
0.999999
0.999977
1
0.999997
0.999999
0.99997
0.999998
0.999997
1
1
1
1
1
1
1
1
1
1
1
1
1
1
1
1
1
1
1
1
1
1
1
1
1
1
1
1
1
1
1
1
1
1
1
1
1
1
1
1
1
1
1
1
1
1
1
1
1
1
1
1
1
1
1
1
1
1
1
1
1
1
1
1
1
1
1
1
1
1
1
1
1
1
1
1
1
1
1
1
1
1
1
1
1
1
1
1
1
1
1
1
1
1
1
1
1
1
1
1
1
1
1
1
1
1
1
1
1
1
1
1
1
1
1
1
1
1
1
1
1
1
1
1
1
1
1
1
1
1
1
1
1
1
1
1
1
1
1
1
1
1
1
1
1
1
1
1
1
1
1
1
1
1
1
1
1
1
1
1
1
1
1
1
1
1
1
1
1
1
1
1
1
1
1
1
1
1
1
1
1
1
1
1
1
1
1
1
1
1
1
1
1
1
1
1
1
1
1
1
1
1
1
1
1
1
1
1
1
1
1
1
1
1
1
1
1
1
1
1
1
1
1
1
1
1
1
1
1
1
1
1
1
1
1
1
1
1
1
1
1
1
1
1
1
1
1
1
1
1
1
1
1
1
1
1
1
1
1
1
1
1
1
1
1
1
1
1
1
1
1
1
1
1
1
1
1
1
1
1
1
1
1
1
1
1
1
1
1
1
1
1
1
1
1
1
1
1
1
1
1
1
1
1
1
1
1
1
1
1
1
1
1
1
1
1
1
1
1
1
1
1
1
1
1
1
1
1
1
1
1
1
1
1
1
1
1
1
1
1
1
1
1
1
1
1
1
1
1
1
1
1
1
1
1
1
1
1
1
1
1
1
1
1
1
1
1
1
1
1
1
1
1
1
1
1
1
1
1
1
1
1
1
1
1
1
1
1
1
1
1
1
1
1
1
1
1
1
1
1
1
1
1
1
1
1
1
1
1
1
1
1
1
1
1
1
1
1
1
1
1
1
1
1
1
1
1
1
1
1
1
1
1
1
1
1
1
1
1
1
1
1
1
1
1
1
1
1
1
1
1
1
1
1
1
1
1
1
1
1
1
1
1
1
1
1
1
1
1
1
1
1
1
1
1
1
1
1
1
1
1
1
1
1
1
1
1
1
1
1
1
1
1
1
1
1
1
1
1
1
1
1
1
1
1
1
1
1
1
1
1
1
1
1
1
1
1
1
1
1
1
1
1
1
1
1
1
1
1
1
1
1
1
1
1
1
1
1
1
1
1
1
1
1
1
1
1
1
1
1
1
1
1
1
1
1
1
1
1
1
1
1
1
1
1
1
1
1
1
1
1
1
1
1
1
1
1
1
1
1
1
1
1
1
1
1
1
1
1
1
1
1
1
1
1
1
1
1
1
1
1
1
1
1
1
1
1
1
1
1
1
1
1
1
1
1
1
1
1
1
1
1
1
1
1
1
1
1
1
1
1
1
1
1
1
1
1
1
1
1
1
1
1
1
1
1
1
1
1
1
1
1
1
1
1
1
1
1
1
0.144858
0.059644
1
1
1
1
1
1
1
1
1
1
1
1
1
1
1
1
1
1
1
0.32975
0.092885
0.623811
0.843384
0.882922
0.0744595
0.18137
0.154026
1
1
1
1
1
1
1
1
1
1
1
1
1
1
1
1
1
1
1
1
1
1
0.381707
0.852694
0.996491
0.993668
0.994294
0.846055
0.432362
0.656642
1
1
1
1
1
1
1
1
1
1
1
1
1
1
1
0.999034
0.999847
0.996364
0.265014
0.997307
0.999827
0.999976
0.999995
0.999987
0.614096
0.558265
0.433136
0.243187
1
1
1
1
1
1
1
1
1
1
1
1
1
1
1
1
1
1
1
1
1
1
1
1
1
0.30742
0.410912
0.291921
0.237559
0.256629
0.615486
0.195794
0.615258
0.194769
0.613788
0.197397
0.201195
0.189719
0.344123
0.33891
0.579432
0.582615
0.887544
0.841878
0.999999
0.999993
0.99999
0.999999
0.999988
0.999988
1
0.999994
0.999995
0.999991
0.999995
1
1
1
1
1
1
1
1
1
1
1
1
1
0.684879
0.933679
0.935906
0.69888
0.90168
1
1
1
0.89494
0.97463
1
1
1
0.633691
0.915544
1
1
1
0.99998
1
0.999998
0.99988
0.999168
0.998947
0.999857
0.998758
0.998757
0.998685
0.999275
0.998326
0.999773
0.999915
0.999088
0.999722
0.999935
0.999989
1
1
0.999999
1
1
1
1
0.999977
0.999999
0.999999
1
1
1
1
1
1
1
1
0.99993
0.999989
0.999994
0.999999
0.999978
0.993227
0.97309
0.967506
0.992105
0.962893
0.962748
0.945788
0.96396
0.976633
0.976229
0.955231
0.995216
0.92987
0.99113
0.998144
0.984308
0.990842
0.9483
0.999807
0.995651
0.99973
0.998848
0.999269
0.9999
0.997046
0.999912
0.995971
0.999996
0.999938
0.998214
0.999905
0.997734
0.999748
0.997525
0.999763
0.998123
0.999999
0.999973
0.999183
0.999909
1
1
1
0.999995
0.999993
0.999973
0.999991
0.999994
1
0.999998
1
1
1
1
1
1
0.882271
0.736377
0.670021
0.86448
0.636231
0.615058
0.39523
0.914853
0.779172
0.764697
0.397492
0.959805
0.81244
0.942617
0.744362
0.89334
0.828557
0.987062
0.898821
0.957062
0.983947
0.991911
0.990307
0.985483
0.99002
0.998474
0.999327
0.999947
0.999997
0.999838
0.999959
1
0.999994
1
1
1
1
1
0.152636
0.171502
0.503077
0.624199
0.263231
0.183047
0.180743
0.596861
0.189815
0.182048
0.603096
0.733322
0.361488
0.822771
0.943473
0.859142
0.945443
0.732675
0.999997
0.867052
1
1
1
0.99967
0.993532
0.998181
0.999997
1
1
1
1
1
0.342155
0.210908
0.999865
0.998931
0.99469
0.973378
1
1
1
1
1
0.999843
0.997518
0.999532
0.999999
0.999938
0.999994
1
1
1
1
1
0.909043
0.60021
0.89121
0.26556
0.716187
0.286404
0.360737
0.891228
0.683513
0.196842
0.67913
0.652985
0.622671
0.709982
0.729035
0.997463
0.999663
1
1
0.99999
1
1
1
1
1
1
1
1
1
0.991342
0.984322
0.979928
0.998186
0.995974
0.957435
0.992689
0.988063
0.891454
0.98432
0.986988
0.856504
0.906517
0.97248
0.967168
0.968052
0.869525
0.959049
0.974231
0.996403
0.999667
0.999236
0.999987
0.999993
0.999999
1
1
1
1
1
1
1
1
0.999834
0.999987
0.999989
0.997947
0.999822
0.998311
0.999522
0.997086
0.999638
0.999554
0.991817
0.999234
0.998939
0.990226
0.998524
0.993694
0.993302
0.996691
0.992608
0.951089
0.997928
0.987475
0.938654
0.989892
1
0.999978
0.999378
0.999368
0.999995
0.999688
0.999994
0.999944
1
1
1
0.999999
0.999992
0.999991
0.999989
0.999989
0.999981
0.999997
1
0.999999
1
0.999996
0.999997
0.999999
0.999988
1
0.999953
0.999994
0.999999
0.999997
0.999948
0.999996
0.973214
0.973935
0.669156
0.794499
0.944309
0.973607
0.689468
0.37188
0.924914
0.284241
0.999982
0.999999
0.995228
0.994884
0.968107
0.975343
0.999456
0.990989
0.999988
1
1
1
0.999993
1
1
1
1
0.996229
1
1
1
1
0.999951
0.999863
0.999268
0.998672
0.99922
0.999797
0.997939
0.999987
0.99812
0.999913
0.999842
0.999921
0.99995
1
0.999999
0.99999
0.999955
0.999973
0.566269
0.25239
0.372906
0.936316
0.99149
0.788717
0.903888
0.917187
0.933143
0.445436
0.984528
0.998922
0.998921
0.995518
0.913335
0.767081
0.908179
0.50376
0.771929
0.89692
0.99815
0.983036
0.98315
0.925602
0.989518
0.967527
0.999566
0.990983
0.99806
0.990218
0.999989
0.999997
0.999973
1
0.999961
0.995736
0.963699
1
0.999596
0.999896
0.997943
0.993307
0.945304
0.991261
0.944419
0.75286
0.993508
0.991421
0.987934
0.975729
0.991347
0.995513
0.977099
0.99886
0.98843
0.998898
0.987854
0.920315
0.999207
0.98981
0.992797
0.0644217
0.290263
0.69834
0.386125
0.942418
0.942618
0.692915
0.887573
0.0703528
0.365343
0.718619
0.0867062
0.602301
0.35795
0.606861
0.596428
0.921936
0.741184
0.872629
0.918069
0.818352
0.994259
0.97668
0.994308
0.879819
0.351897
0.752315
0.9997
0.997491
0.997925
0.952409
0.917339
0.923948
0.990124
0.787373
0.795368
0.495853
0.950632
0.280246
0.400199
0.813836
0.820302
0.747271
0.224044
0.277481
0.788766
0.944649
0.686692
0.663323
0.220528
0.702054
0.822513
0.88881
0.70587
0.909163
0.32249
0.0720309
0.413403
0.0647316
0.976791
0.99478
0.0689683
0.823918
0.980466
0.93015
0.267916
0.223437
0.086018
0.293461
0.342805
0.250144
0.159511
0.140542
0.880486
0.808681
0.664588
0.702392
0.985409
0.970145
0.88377
0.926393
0.913578
0.940076
0.940437
0.822234
0.763305
0.619646
0.336112
0.432902
0.864649
0.68985
0.784728
0.498331
0.549704
0.612178
0.564655
0.338642
0.0890924
0.507336
0.992078
0.31397
0.927881
0.604814
0.999205
0.45106
0.271208
0.644866
0.210455
0.15669
0.36028
0.186445
0.447811
0.189485
0.0736697
0.0838042
0.241518
0.10796
0.387369
0.128576
0.812585
0.689134
0.1341
0.32693
0.059504
0.974006
0.991189
0.495223
0.89548
0.984988
0.97588
0.916267
0.905816
0.838599
0.962343
0.26021
0.714807
0.842464
0.659701
0.640522
0.724607
0.790199
0.793676
0.873574
0.933708
0.96731
0.958142
0.999994
0.999776
0.999153
0.994111
0.992308
0.881599
0.779099
0.999974
1
1
0.999998
0.368768
0.509381
0.999995
1
0.999991
1
0.309767
0.443926
0.396539
0.19651
0.486533
0.630825
0.907641
0.808092
0.998984
0.344853
0.394636
0.429064
0.555432
0.108913
0.074697
0.654501
0.316596
0.948108
0.995899
0.977801
0.868852
0.95827
0.516147
0.718603
0.0623714
0.592695
0.269771
0.57019
0.948844
0.995072
0.988035
0.997768
0.634078
0.861671
0.944486
0.960774
0.9743
0.999686
0.994544
0.999227
0.952383
0.964921
0.991053
0.998501
0.998489
0.670652
0.345174
0.361184
0.754547
0.260683
0.589126
0.956272
0.995634
0.999564
0.848898
0.943254
0.984238
0.999959
0.939983
0.60663
0.661813
0.521511
0.579147
0.562822
0.752659
0.70344
0.747347
0.663889
0.535424
0.557592
0.59639
0.737621
0.631423
0.748503
0.745891
0.998264
0.999919
0.999565
0.983632
0.99788
0.991766
0.856454
0.899157
0.972657
0.997375
0.984138
0.999857
0.999888
0.999991
0.999991
0.934446
0.999986
0.999891
0.999988
0.35185
0.99999
0.999986
0.999655
0.928412
0.831611
0.996169
0.997605
0.963991
0.994039
0.722043
0.60021
0.750593
0.739377
0.999998
1
0.721391
0.810124
0.863706
0.267581
0.642935
0.20144
0.999865
0.999996
1
0.999962
0.99574
0.999698
0.998275
0.939495
0.971511
0.922189
0.9929
0.0938372
0.320746
0.676544
0.756525
0.636241
0.0674115
1
0.999999
1
0.920389
0.901626
0.999994
1
1
0.988534
0.977688
0.995245
0.999166
0.998851
0.999998
0.999981
0.999994
0.999999
0.983793
0.895539
0.969317
0.96636
1
0.947172
0.97512
0.984209
0.991676
0.112375
0.180374
0.230554
0.245306
0.999993
1
0.999999
0.999502
0.999989
0.999902
0.989773
0.997256
0.999456
0.830263
0.645538
0.865496
0.930241
0.498157
0.207495
0.582021
0.832098
1
1
1
1
1
1
0.998731
0.998933
0.99977
0.999963
0.999959
0.999995
1
1
0.999888
0.99998
0.995888
0.999218
0.991514
0.998502
0.998332
1
1
0.996419
0.998866
0.999395
0.458552
0.763867
1
1
1
0.999987
1
0.999999
0.999461
0.999925
0.999724
0.99999
0.90937
0.880618
0.956298
0.636279
0.390047
0.722453
0.958316
0.903804
0.972304
0.983174
1
1
1
1
1
0.999971
0.999986
0.999998
1
1
1
1
1
1
0.999891
0.999989
0.999747
0.999974
0.999971
1
1
0.999926
0.999983
0.99999
0.918457
0.978288
1
1
1
1
0.999999
0.999997
0.999992
0.999981
0.999982
0.999991
0.984739
0.988985
0.996142
0.839174
0.849562
0.930964
0.985584
0.977622
0.994606
0.998165
1
1
1
1
1
1
1
1
1
1
1
1
1
1
0.999997
0.999997
0.999999
0.999998
0.999996
0.999995
0.999973
0.999997
0.99995
0.999871
0.999566
0.995592
0.999072
0.999994
0.999967
0.999915
0.999957
0.999812
0.99958
0.999819
0.998902
0.998685
0.999167
0.999302
0.999614
0.999898
0.978038
0.987644
0.994839
0.998584
0.998581
0.999745
0.999952
0.999999
1
0.999999
1
1
1
0.999999
0.999999
1
0.999999
0.999999
1
1
0.999999
0.999999
0.999999
0.999748
0.999977
0.999777
0.99974
0.999477
0.998259
0.997239
0.994518
0.986648
0.973427
0.998029
0.990115
0.999232
0.995006
0.997007
0.990834
0.984092
0.992664
0.967834
0.975205
0.99985
0.99634
0.999076
0.999106
0.999559
0.999797
0.999963
0.999907
0.999933
0.999817
0.999913
0.999992
0.999934
0.999993
0.999941
0.999906
0.999932
0.999989
0.99991
0.999989
0.999917
0.999891
0.999906
0.992786
0.992679
0.998519
0.992975
0.991599
0.986982
0.969851
0.998234
0.95
0.927754
0.853221
0.742792
0.96158
0.887869
0.976209
0.916148
0.935771
0.86351
0.801376
0.887633
0.683276
0.728561
0.995837
0.955763
0.986706
0.999383
0.996396
0.997105
0.999571
0.997777
0.998001
0.996192
0.999589
0.998118
0.999556
0.998168
0.997838
0.99754
0.999448
0.997487
0.999432
0.99938
0.997555
0.997436
0.99734
0.984115
0.958428
0.976735
0.946344
0.936578
0.923405
0.929258
0.976046
0.918114
0.895184
0.832721
0.971707
0.660256
0.674887
0.382912
0.759162
0.658397
0.562389
0.777419
0.790229
0.531152
0.246587
0.178843
0.269662
0.100643
0.072956
0.969568
0.858008
0.948311
0.989644
0.967152
0.971916
0.993266
0.979151
0.983519
0.978799