/*--------------------------------*- C++ -*----------------------------------*\
  =========                 |
  \\      /  F ield         | OpenFOAM: The Open Source CFD Toolbox
   \\    /   O peration     | Website:  https://openfoam.org
    \\  /    A nd           | Version:  13
     \\/     M anipulation  |
\*---------------------------------------------------------------------------*/
FoamFile
{
    format      ascii;
    class       volScalarField;
    location    "0";
    object      thickness;
}
// * * * * * * * * * * * * * * * * * * * * * * * * * * * * * * * * * * * * * //

dimensions      [];

internalField   uniform 0;

boundaryField
{
    domain
    {
        type            fixedValue;
        value           uniform 0;
    }
    wall_aorta
    {
        type            fixedValue;
        value           nonuniform List<scalar> 
5988
(
0
0
0
0
0
0
0
0
0
0
0
0
0
0
0
0
0
0
0
0
0
0
0
0
0
0
0
0
0
0
0
0
0
0
0
0
0
0
0
0
0
0
0
0
0
0
0
0
0
0
0
0
0
0
0
0
0
0
0
0
0
0
0
0
0
0
0
0
0
0
0
0
0
0
0
0
0
0
0
0
0
0
0
0
0
0
0
0
0
0
0
0
0
0
0
0
0
0
0
0
0
0
0
0
0
0
0
0
0
0
0
0
0
0
0
0
0
0
0
0
0
0
0
0
0
0
0
0
0
0
0
0
0
0
0
0
0
0
0
0
0
0
0
0
0
0
0
0
0
0
0
0
0
0
0
0
0
0
0
0
0
0
0
0
0
0
0
0
0
0
0
0
0
0
0
0
0
0
0
0
0
0
0
0
0
0
0
0
0
0
0
0
0
0
0
0
0
0
0
0
0
0
0
0
0
0
0
0
0
0
0
0
0
0
0
0
0
0
0
0
0
0
0
0
0
0
0
0
0
0
0
0
0
0
0
0
0
0
0
0
0
0
0
0
0
0
0
0
0
0
0
0
0
0
0
0
0
0
0
0
0
0
0
0
0
0
0
0
0.0400942
0.150186
0.171402
0.24504
0.38363
0.448301
0.412737
0.4671
0.578347
0.614417
0.630471
0.625417
0.638731
0.636669
0.654716
0.654428
0.657809
0.657482
0.658088
0.656563
0.658247
0.658822
0.658781
0.659416
0.659445
0.659508
0.65951
0.659504
0.65952
0.659526
0.659533
0.659531
0.659533
0.659533
0.659533
0.659533
0.659533
0.659533
0.659533
0.659533
0.659533
0.659533
0.659533
0.659533
0.659533
0.659533
0.659533
0.659533
0.659533
0.659533
0.659533
0.659533
0.659533
0.659533
0.659533
0.659533
0.659533
0.659533
0.659533
0.659533
0.659533
0.659533
0.659533
0.659533
0.659533
0.659533
0.659533
0.659533
0.659533
0.659533
0.659533
0.659533
0.659533
0.659533
0.659533
0.659533
0.659533
0.659533
0.659533
0.659533
0.659533
0.659533
0.659533
0.659533
0.659533
0.659533
0.659533
0.659533
0.659533
0.659533
0.659533
0.659533
0.659533
0.659533
0.659533
0.659533
0.659533
0.659533
0.659533
0.659533
0.659533
0.659533
0.659533
0.659533
0.659533
0.659533
0.659533
0.659533
0.659533
0.659533
0.659533
0.659533
0.659533
0.659533
0.659533
0.659533
0.659533
0.659533
0.659533
0.659533
0.659533
0.659533
0.659533
0.659533
0.659533
0.659533
0.659533
0.659533
0.659533
0.659533
0.659533
0.659533
0.659533
0.659533
0.659533
0.659533
0.659533
0.659533
0.659533
0.659533
0.659533
0.659533
0.659533
0.659533
0.659533
0.659533
0.659533
0.659533
0.659533
0.659533
0.659533
0.659533
0.659533
0.659533
0.659533
0.659533
0.659533
0.659533
0.659533
0.659533
0.659533
0.659533
0.659533
0.659533
0.659533
0.659533
0.659533
0.659533
0.659533
0.659533
0.659533
0.659533
0.659533
0.659533
0.659533
0.659533
0.659533
0.659533
0.659533
0.659533
0.659533
0.659533
0.659533
0.659533
0.659533
0.659533
0.659533
0.659533
0.659533
0.659533
0.659533
0.659533
0.659533
0.659533
0.659533
0.659533
0.659533
0.659533
0.659533
0.659533
0.659533
0.659533
0.659533
0.659533
0.659533
0.659533
0.659533
0.659533
0.659533
0.659533
0.659533
0.659533
0.659533
0.659533
0.659533
0.659533
0.659533
0.659533
0.659533
0.659533
0.659533
0.659533
0.659533
0.659533
0.659533
0.659533
0.659533
0.659533
0.659533
0.659533
0.659533
0.659533
0.659533
0.659533
0.659533
0.659533
0.659533
0.659533
0.659533
0.659533
0.659533
0.659533
0.659533
0.659533
0.659533
0.659533
0.659533
0.659533
0.659533
0.659533
0.659533
0.659533
0.659533
0.659533
0.659533
0.659533
0.659533
0.659533
0.659533
0.659533
0.659533
0.659533
0.659533
0.659533
0.659533
0.659533
0.659533
0.659533
0.659533
0.659533
0.659533
0.659533
0.659533
0.659533
0.659533
0.659533
0.659533
0.659533
0.659533
0.659533
0.659533
0.080457
0.279203
0.659533
0.659533
0.659533
0.659533
0.659533
0.659533
0.659533
0.659533
0.659533
0.659533
0.659533
0.659533
0.659533
0.123078
0.64391
0.630445
0.59066
0.570247
0.379286
0.659533
0.659533
0.659533
0.659533
0.659533
0.659533
0.659533
0.659533
0.659533
0.659533
0.659533
0.659533
0.627564
0.50511
0.242897
0.659352
0.658481
0.652612
0.63611
0.11138
0.659533
0.659533
0.659533
0.659533
0.659533
0.659533
0.659533
0.659533
0.659533
0.659533
0.657239
0.638898
0.5503
0.659532
0.65953
0.659529
0.659372
0.657171
0.621385
0.480444
0.659533
0.659532
0.659533
0.659533
0.659533
0.659533
0.659533
0.659533
0.659533
0.65947
0.657604
0.635916
0.659533
0.473432
0.659533
0.456878
0.659533
0.533494
0.659533
0.64062
0.659532
0.65942
0.659371
0.659468
0.659513
0.65953
0.659533
0.659533
0.659533
0.659533
0.659466
0.650087
0.648929
0.659533
0.659533
0.659532
0.658482
0.657287
0.65915
0.659514
0.659526
0.659529
0.659533
0.659533
0.659533
0.65951
0.65952
0.659533
0.659533
0.659525
0.659533
0.659533
0.659533
0.65952
0.659533
0.65945
0.659533
0.659525
0.659533
0.659533
0.659533
0.659533
0.235031
0.105563
0.248086
0.31624
0.280168
0.623518
0.659533
0.659505
0.65871
0.656942
0.659533
0.643975
0.659533
0.659533
0.0377645
0.305832
0.658621
0.648811
0.46349
0.276068
0.537364
0.659533
0.659533
0.659533
0.659533
0.659533
0.659533
0.252013
0.271028
0.468011
0.233968
0.365453
0.125839
0.65934
0.659533
0.659533
0.656719
0.659477
0.659533
0.659533
0.616025
0.639938
0.645735
0.610966
0.595965
0.60436
0.646164
0.512684
0.315907
0.659533
0.659532
0.659528
0.65533
0.65953
0.659533
0.659533
0.659533
0.659157
0.658637
0.656187
0.657827
0.553462
0.659311
0.65953
0.659532
0.659324
0.659533
0.659416
0.659533
0.659533
0.659533
0.659533
0.659533
0.65953
0.659532
0.659525
0.643874
0.631365
0.643109
0.614765
0.61803
0.658228
0.65953
0.659477
0.658133
0.65947
0.659533
0.659533
0.659533
0.659533
0.659533
0.659499
0.659533
0.659533
0.659518
0.659533
0.659496
0.659533
0.659532
0.6594
0.65953
0.659531
0.659528
0.659532
0.429697
0.435665
0.643362
0.619926
0.31518
0.648643
0.502002
0.657115
0.633022
0.659504
0.659532
0.654405
0.659527
0.654148
0.658818
0.656359
0.658812
0.658995
0.548448
0.123104
0.33886
0.436719
0.560114
0.158482
0.523627
0.6595
0.590275
0.500964
0.582068
0.615311
0.624732
0.413791
0.388372
0.533609
0.266084
0.621116
0.180476
0.394611
0.0459593
0.434326
0.647933
0.512979
0.612866
0.0644604
0.542254
0.133371
0.626629
0.642604
0.0621233
0.430874
0.513096
0.228589
0.57707
0.0636934
0.397138
0.128681
0.625316
0.555904
0.236092
0.624306
0.502383
0.532014
0.636974
0.375322
0.622661
0.556229
0.659488
0.0248558
0.169805
0.149533
0.652876
0.260843
0.657866
0.655065
0.554719
0.655829
0.418357
0.581622
0.651914
0.658944
0.64747
0.493063
0.659533
0.595692
0.659533
0.182686
0.521079
0.436786
0.125161
0.655349
0.633329
0.647142
0.65951
0.632764
0.659395
0.659055
0.659533
0.581724
0.659533
0.538876
0.238952
0.659533
0.231909
0.55337
0.658963
0.648998
0.659533
0.5123
0.659478
0.6573
0.659533
0.659533
0.073936
0.640294
0.402965
0.659485
0.658005
0.50993
0.65837
0.659533
0.659356
0.659533
0.658359
0.659533
0.111083
0.132045
0.658362
0.494048
0.659533
0.659475
0.63801
0.659494
0.659533
0.659531
0.659533
0.659509
0.659533
0.49724
0.568783
0.659513
0.63185
0.659533
0.659532
0.655211
0.659533
0.659533
0.659533
0.659533
0.659533
0.659533
0.641778
0.653504
0.659433
0.658115
0.659523
0.659467
0.659297
0.659533
0.659533
0.659533
0.659522
0.659519
0.659521
0.656297
0.65558
0.65551
0.659086
0.658518
0.656116
0.659516
0.659526
0.659526
0.659527
0.658906
0.65869
0.658826
0.610904
0.592224
0.598787
0.64969
0.632716
0.598504
0.658874
0.659185
0.659182
0.659187
0.648927
0.645583
0.645394
0.312143
0.184244
0.273116
0.597445
0.424052
0.246466
0.652651
0.654156
0.653848
0.653919
0.56365
0.507307
0.131506
0.523824
0.628149
0.619954
0.610474
0.618618
0.616263
0.0883711
0.0482654
0.113685
0.137825
0.146879
0.149024
0.272738
0.493738
0.174899
0.464289
0.435734
0.469208
0.468787
0.520285
0.340058
0.472098
0.518705
0.342774
0.543407
0.402188
0.548031
0.562416
0.452971
0.574727
0.597168
0.609192
0.543819
0.594854
0.643473
0.64298
0.610158
0.648324
0.652316
0.614102
0.652005
0.647592
0.64672
0.612901
0.645604
0.64861
0.650224
0.631727
0.651814
0.653525
0.642053
0.654749
0.655893
0.652708
0.650769
0.65699
0.656775
0.657574
0.659163
0.659278
0.658106
0.659246
0.658566
0.659379
0.65942
0.659446
0.658973
0.659446
0.65947
0.659492
0.659507
0.659498
0.65951
0.659531
0.659532
0.659524
0.659533
0.659533
0.659533
0.659528
0.659533
0.659533
0.659533
0.659532
0.659533
0.659533
0.659533
0.659533
0.659533
0.659533
0.659533
0.659533
0.659533
0.659533
0.659533
0.659533
0.659533
0.659533
0.659533
0.659533
0.659533
0.659533
0.659533
0.659533
0.659533
0.659533
0.659533
0.659533
0.659533
0.659533
0.659533
0.659533
0.659533
0.659533
0.659533
0.659533
0.659533
0.659533
0.659533
0.659533
0.659533
0.659533
0.659533
0.659533
0.659533
0.659533
0.659533
0.659533
0.659533
0.659533
0.659533
0.659533
0.659533
0.659533
0.659533
0.659533
0.659533
0.659533
0.659533
0.659533
0.659533
0.659533
0.659533
0.659533
0.659533
0.659533
0.659533
0.659533
0.659533
0.659533
0.659533
0.659533
0.659533
0.659533
0.659533
0.659533
0.659533
0.659533
0.659533
0.659533
0.659533
0.659533
0.659533
0.659533
0.659533
0.659533
0.659533
0.659533
0.659533
0.659533
0.659533
0.659533
0.659533
0.659533
0.659533
0.659533
0.659533
0.659533
0.659533
0.659533
0.659533
0.659533
0.659533
0.659533
0.659533
0.659533
0.659533
0.659533
0.659533
0.659533
0.659533
0.659533
0.659533
0.659533
0.659533
0.659533
0.659533
0.659533
0.659533
0.659533
0.659533
0.659533
0.659533
0.659533
0.659533
0.659533
0.659533
0.659533
0.659533
0.659533
0.659533
0.659533
0.659533
0.659533
0.659533
0.659533
0.659533
0.659533
0.659533
0.659533
0.659533
0.659533
0.659533
0.659533
0.659533
0.659533
0.659533
0.659533
0.659533
0.659533
0.659533
0.659533
0.659533
0.659533
0.659533
0.659533
0.659533
0.659533
0.659533
0.659533
0.659533
0.659533
0.659533
0.659533
0.659533
0.659533
0.659533
0.659533
0.659533
0.659533
0.659533
0.659533
0.659533
0.659533
0.659533
0.659533
0.659533
0.659533
0.659533
0.659533
0.659533
0.659533
0.659533
0.659533
0.659533
0.659533
0.659533
0.659533
0.659533
0.659533
0.659533
0.659533
0.659533
0.659533
0.659533
0.659533
0.659533
0.659533
0.659533
0.659533
0.659533
0.659533
0.659533
0.659533
0.659533
0.659533
0.659533
0.659533
0.659533
0.659533
0.659533
0.659533
0.659533
0.659533
0.659533
0.659533
0.659533
0.659533
0.659533
0.659533
0.659533
0.659533
0.659533
0.659533
0.659533
0.659533
0.659533
0.659533
0.659533
0.659533
0.659533
0.659533
0.659533
0.659533
0.659533
0.659533
0.659533
0.659533
0.659533
0.659533
0.659533
0.659533
0.659533
0.659533
0.659533
0.659533
0.659533
0.659533
0.659533
0.659533
0.659533
0.659533
0.659533
0.659533
0.659533
0.125027
0.108969
0.659533
0.659533
0.659533
0.659533
0.659533
0.659533
0.659533
0.659533
0.659533
0.659533
0.659533
0.659533
0.659533
0.169032
0.363404
0.480474
0.133202
0.425102
0.222093
0.659533
0.659533
0.659533
0.659533
0.659533
0.659533
0.659533
0.659533
0.0459086
0.344287
0.199014
0.0565427
0.631313
0.621188
0.652874
0.659533
0.659533
0.659533
0.659533
0.659533
0.132916
0.446104
0.342471
0.659533
0.659533
0.659533
0.659522
0.659533
0.659027
0.659461
0.659526
0.659527
0.659533
0.659533
0.659533
0.659533
0.659533
0.65953
0.659529
0.659533
0.659533
0.604422
0.659533
0.659478
0.65948
0.659025
0.659042
0.658158
0.659533
0.659275
0.65632
0.643448
0.64407
0.649792
0.612387
0.659533
0.659533
0.659533
0.659533
0.659533
0.659533
0.659533
0.659533
0.659533
0.659533
0.659533
0.659533
0.659533
0.659533
0.601518
0.479573
0.480424
0.537091
0.354624
0.642287
0.659533
0.659533
0.659533
0.659533
0.659533
0.659533
0.659533
0.659533
0.172195
0.145169
0.188798
0.217857
0.370337
0.659533
0.659533
0.65953
0.659507
0.657055
0.644982
0.632574
0.659533
0.659533
0.659533
0.659533
0.659533
0.659533
0.659533
0.0437044
0.10373
0.117612
0.0869143
0.659533
0.659525
0.659533
0.659533
0.658648
0.659533
0.659533
0.252069
0.50792
0.511759
0.336842
0.495191
0.527785
0.4727
0.578065
0.362882
0.546018
0.528863
0.582454
0.518112
0.521935
0.251296
0.513111
0.659525
0.659496
0.659244
0.657393
0.659532
0.659533
0.659533
0.659533
0.659533
0.652932
0.653211
0.656336
0.607405
0.647938
0.619251
0.64871
0.657518
0.657908
0.626983
0.653598
0.655215
0.609337
0.654485
0.650575
0.646722
0.659527
0.659533
0.659533
0.659484
0.659533
0.659533
0.659529
0.65953
0.659507
0.659489
0.659468
0.659532
0.659533
0.659532
0.659533
0.659512
0.659424
0.658243
0.659491
0.658126
0.658286
0.659435
0.659036
0.659487
0.659518
0.659118
0.658732
0.659492
0.658782
0.659457
0.658912
0.659421
0.659453
0.659024
0.659438
0.658802
0.659276
0.659171
0.659531
0.659533
0.659533
0.659532
0.659529
0.659533
0.659533
0.659533
0.659533
0.659533
0.659533
0.659533
0.659533
0.659533
0.659533
0.65953
0.659531
0.659533
0.659533
0.659533
0.659533
0.659532
0.659531
0.659533
0.659533
0.659526
0.659533
0.579198
0.57296
0.527296
0.579059
0.574852
0.566918
0.530994
0.518844
0.471307
0.471593
0.595774
0.659409
0.659508
0.658588
0.657494
0.659243
0.659512
0.659533
0.659531
0.65953
0.659525
0.659388
0.65925
0.658468
0.659533
0.659533
0.659533
0.659533
0.659533
0.659533
0.659533
0.659533
0.659533
0.659531
0.659375
0.658019
0.659533
0.659533
0.659533
0.659533
0.659533
0.659533
0.659533
0.659532
0.659451
0.659493
0.65953
0.659485
0.659449
0.111972
0.172255
0.560747
0.640981
0.608786
0.596191
0.0608645
0.547271
0.278067
0.53647
0.619299
0.494136
0.654592
0.613753
0.248047
0.652517
0.635492
0.601347
0.659533
0.659532
0.659493
0.659491
0.65899
0.658866
0.655264
0.159026
0.169595
0.153597
0.0998277
0.141031
0.120557
0.0466879
0.21865
0.232258
0.100902
0.257332
0.540037
0.490365
0.249117
0.3562
0.459387
0.183606
0.569334
0.554995
0.120198
0.477201
0.160864
0.242592
0.473525
0.228535
0.636404
0.590767
0.659476
0.659046
0.655203
0.657899
0.652813
0.639283
0.586257
0.601122
0.418484
0.602186
0.40563
0.569192
0.564125
0.347702
0.550908
0.517517
0.442594
0.0660211
0.387498
0.128435
0.391397
0.353636
0.281739
0.116341
0.649279
0.047236
0.655607
0.403456
0.330763
0.270864
0.591586
0.159958
0.0503296
0.229499
0.64427
0.595347
0.598843
0.572034
0.279894
0.166739
0.648432
0.657621
0.632634
0.640339
0.657896
0.650262
0.657966
0.657757
0.392733
0.543733
0.652533
0.655193
0.658934
0.334074
0.311446
0.488989
0.550958
0.424033
0.593778
0.605874
0.545922
0.432856
0.102726
0.0573495
0.0478309
0.347935
0.220041
0.483765
0.479073
0.0736638
0.577813
0.551473
0.624674
0.425135
0.258406
0.659328
0.659354
0.659505
0.588989
0.642194
0.444093
0.581646
0.551003
0.638766
0.6218
0.647897
0.607674
0.649673
0.638296
0.112298
0.235638
0.65916
0.659456
0.652172
0.596543
0.534928
0.157648
0.527452
0.639351
0.659324
0.455308
0.592684
0.466973
0.657856
0.659441
0.659525
0.659533
0.659533
0.659533
0.541851
0.64268
0.635879
0.628684
0.605445
0.659533
0.659533
0.659533
0.450139
0.614628
0.558053
0.413273
0.659523
0.659533
0.659533
0.0558514
0.258115
0.0608336
0.659523
0.654739
0.659475
0.659508
0.65953
0.525792
0.622416
0.511397
0.251117
0.19246
0.34525
0.62636
0.652865
0.659526
0.659524
0.659419
0.658181
0.659434
0.658779
0.659533
0.659533
0.659533
0.637581
0.571119
0.659533
0.659533
0.659533
0.20012
0.303234
0.139058
0.0526243
0.0547884
0.659533
0.659533
0.659533
0.210234
0.659371
0.659533
0.659519
0.659532
0.642488
0.589206
0.63646
0.656855
0.464037
0.629945
0.65942
0.659176
0.659521
0.659435
0.659009
0.659533
0.659533
0.659533
0.649829
0.657067
0.629964
0.654841
0.659533
0.659533
0.659533
0.659533
0.659533
0.659533
0.659533
0.65942
0.659506
0.659533
0.659531
0.659533
0.654541
0.6585
0.659267
0.648346
0.657384
0.657288
0.658068
0.659533
0.659533
0.659516
0.659533
0.659531
0.659533
0.659533
0.659533
0.65904
0.65933
0.659533
0.659533
0.659533
0.659533
0.0444112
0.20022
0.325315
0.394256
0.175104
0.425748
0.446084
0.659533
0.0589609
0.0608525
0.65953
0.659533
0.659533
0.659533
0.659533
0.659381
0.659517
0.65953
0.659196
0.659496
0.659495
0.659533
0.659533
0.659511
0.659533
0.659533
0.659533
0.659533
0.659533
0.659533
0.659533
0.659533
0.659533
0.659531
0.659533
0.659533
0.659533
0.659533
0.659533
0.406989
0.553929
0.545723
0.59839
0.622094
0.583625
0.632775
0.638654
0.659533
0.18365
0.492142
0.461191
0.496062
0.659533
0.659533
0.659533
0.659533
0.659533
0.659532
0.659533
0.659533
0.659533
0.65953
0.659533
0.659533
0.659533
0.659533
0.659533
0.659533
0.659532
0.659533
0.659532
0.659532
0.659533
0.659532
0.659532
0.659532
0.659533
0.659532
0.659532
0.659533
0.659532
0.625425
0.650885
0.650083
0.655237
0.657159
0.655123
0.65793
0.658448
0.659528
0.659532
0.592665
0.644575
0.641709
0.645341
0.659533
0.659533
0.659533
0.659533
0.659533
0.659533
0.659533
0.659533
0.659533
0.659533
0.659533
0.659533
0.659532
0.659533
0.659523
0.659443
0.659517
0.659424
0.659395
0.65952
0.65942
0.659435
0.659513
0.659368
0.659404
0.65952
0.659522
0.65942
0.659432
0.659512
0.659426
0.659345
0.656677
0.652763
0.65547
0.646657
0.641353
0.656844
0.641328
0.64669
0.65909
0.658056
0.655736
0.656591
0.658286
0.658936
0.659528
0.659486
0.659526
0.659484
0.659474
0.659525
0.659467
0.659476
0.659525
0.659463
0.659461
0.659459
0.659463
0.658936
0.656621
0.658651
0.656044
0.655303
0.658829
0.656233
0.65655
0.655517
0.658874
0.656117
0.656218
0.655994
0.654221
0.633959
0.58456
0.592311
0.514668
0.461745
0.610891
0.461612
0.514981
0.649393
0.652188
0.632964
0.656445
0.629259
0.649597
0.655763
0.659234
0.658117
0.659164
0.657986
0.657794
0.65913
0.657692
0.65795
0.657915
0.659092
0.657549
0.657517
0.657561
0.659118
0.657697
0.647599
0.625675
0.628529
0.611672
0.646299
0.646063
0.616564
0.613378
0.612219
0.605985
0.497191
0.425682
0.184317
0.168612
0.313783
0.172728
0.585362
0.581947
0.635697
0.558157
0.616399
0.633775
0.654589
0.647034
0.653327
0.644605
0.642836
0.653204
0.643159
0.646103
0.647538
0.652603
0.641477
0.641563
0.642634
0.562157
0.137288
0.658248
0.659263
0.659375
0.659355
0.65952
0.659533
0.659533
0.659533
0.659533
0.659533
0.659533
0.659533
0.659533
0.659533
0.659533
0.659533
0.659533
0.659533
0.659533
0.659533
0.659533
0.659533
0.659533
0.659533
0.659533
0.659533
0.659533
0.659533
0.659533
0.659533
0.659533
0.659533
0.659533
0.659533
0.659533
0.659533
0.659533
0.659533
0.659533
0.659533
0.659533
0.659533
0.659533
0.659533
0.659533
0.659533
0.659533
0.659533
0.659533
0.659533
0.659533
0.659533
0.659533
0.659533
0.659533
0.659533
0.659533
0.659526
0.659533
0.659533
0.659145
0.659526
0.659464
0.658864
0.659521
0.659452
0.659533
0.659533
0.659533
0.659533
0.658789
0.659533
0.659525
0.659532
0.659507
0.659486
0.659528
0.659529
0.659433
0.659407
0.658517
0.65842
0.659531
0.639413
0.618024
0.583123
0.622967
0.638027
0.642622
0.659233
0.659484
0.659495
0.659338
0.653953
0.656462
0.65926
0.658101
0.493898
0.50757
0.616475
0.659533
0.659533
0.659533
0.659533
0.659533
0.659533
0.659533
0.659533
0.659533
0.659533
0.659533
0.659533
0.659533
0.659533
0.659533
0.659533
0.659533
0.659533
0.659533
0.659533
0.659533
0.659533
0.659533
0.659533
0.659533
0.659533
0.659533
0.659533
0.659533
0.659533
0.659495
0.659196
0.659521
0.659357
0.659417
0.656466
0.659533
0.659533
0.659533
0.659533
0.659533
0.659533
0.659533
0.659533
0.659533
0.659533
0.659533
0.659533
0.659533
0.659533
0.659533
0.659533
0.659533
0.659533
0.659533
0.659533
0.659533
0.659533
0.659533
0.659533
0.659533
0.659533
0.659533
0.659533
0.659533
0.659533
0.659533
0.659533
0.659533
0.659533
0.659533
0.659533
0.659533
0.659533
0.659533
0.659533
0.659533
0.659533
0.659533
0.659533
0.659533
0.659533
0.659533
0.659533
0.659533
0.659533
0.659533
0.659533
0.659533
0.659533
0.659533
0.659533
0.659533
0.659533
0.659533
0.659533
0.659533
0.659533
0.659533
0.659533
0.659533
0.659533
0.659533
0.659533
0.659533
0.659533
0.659533
0.659533
0.659533
0.659533
0.659533
0.659533
0.659533
0.659533
0.659533
0.659533
0.659533
0.659533
0.659533
0.659533
0.659533
0.659533
0.659533
0.659533
0.659533
0.659533
0.659533
0.659533
0.659533
0.659533
0.659533
0.659533
0.659533
0.659533
0.659533
0.659533
0.659533
0.659533
0.659533
0.659533
0.659533
0.659533
0.659533
0.659533
0.659533
0.659533
0.659533
0.659533
0.659533
0.659533
0.659533
0.659533
0.659533
0.659533
0.659533
0.659533
0.659533
0.659533
0.659533
0.659533
0.659533
0.659533
0.659533
0.659533
0.659533
0.659533
0.659533
0.659533
0.659533
0.659533
0.659533
0.659533
0.659533
0.659533
0.659533
0.659533
0.659533
0.659533
0.659533
0.659533
0.659533
0.659533
0.659533
0.659533
0.659533
0.659533
0.659533
0.659533
0.659533
0.358977
0.595857
0.568456
0.156756
0.550887
0.404624
0.12649
0.458345
0.473745
0.659533
0.659533
0.659533
0.659533
0.659533
0.659533
0.659533
0.659533
0.659533
0.659533
0.659533
0.659533
0.659533
0.659533
0.659533
0.659533
0.617655
0.469658
0.65433
0.54607
0.60805
0.643943
0.647269
0.657581
0.592878
0.651011
0.645646
0.584492
0.645737
0.63974
0.659533
0.659533
0.659533
0.659533
0.659533
0.659533
0.659533
0.659533
0.659533
0.646013
0.579842
0.649635
0.632356
0.39638
0.598016
0.537944
0.659324
0.659197
0.658772
0.659504
0.659473
0.659136
0.659493
0.659504
0.65853
0.659533
0.659533
0.659533
0.659533
0.659533
0.659533
0.659533
0.659533
0.659533
0.659533
0.659533
0.651984
0.659119
0.657742
0.609493
0.652998
0.638599
0.602223
0.480472
0.659533
0.659533
0.659533
0.659533
0.659532
0.659533
0.659479
0.659532
0.659525
0.659518
0.659533
0.659532
0.659532
0.659533
0.659533
0.659533
0.659533
0.659533
0.651858
0.659094
0.657559
0.659533
0.659533
0.659533
0.659533
0.659533
0.659533
0.659533
0.659533
0.658299
0.659533
0.659533
0.659533
0.659533
0.659533
0.659525
0.659533
0.659533
0.659527
0.659533
0.659533
0.653067
0.659106
0.659533
0.659533
0.659533
0.659533
0.659533
0.659533
0.659533
0.659533
0.659533
0.659533
0.659533
0.659533
0.659533
0.659533
0.659533
0.659533
0.659533
0.659533
0.659533
0.659525
0.6593
0.659527
0.659325
0.659533
0.659533
0.659533
0.659533
0.659326
0.659328
0.658539
0.656006
0.649113
0.651203
0.604851
0.580893
0.659533
0.659533
0.659533
0.659533
0.659533
0.659533
0.659533
0.659533
0.659387
0.655627
0.603591
0.499562
0.276526
0.158408
0.297239
0.659533
0.659533
0.659533
0.659533
0.659533
0.623029
0.645958
0.605036
0.659533
0.609724
0.659524
0.659484
0.659533
0.659526
0.651548
0.64813
0.642747
0.549567
0.638877
0.487008
0.65811
0.658558
0.651837
0.653034
0.659044
0.658087
0.620795
0.554772
0.611847
0.645306
0.656203
0.656954
0.635218
0.656268
0.647708
0.65953
0.659533
0.659528
0.659472
0.173415
0.0460815
0.389959
0.108473
0.238957
0.639009
0.659533
0.659533
0.659533
0.659533
0.659533
0.659533
0.659533
0.659533
0.659533
0.659533
0.659533
0.659533
0.659533
0.659533
0.659533
0.659533
0.659533
0.659533
0.659533
0.659533
0.659533
0.659533
0.659533
0.659533
0.659533
0.659413
0.659533
0.659533
0.659533
0.659533
0.659533
0.659533
0.659533
0.659533
0.169884
0.659533
0.659533
0.30224
0.580398
0.51839
0.584242
0.659444
0.659465
0.659484
0.636945
0.649519
0.659028
0.476881
0.659533
0.659533
0.659533
0.100831
0.111496
0.21734
0.162661
0.165626
0.332416
0.54266
0.369721
0.265634
0.539857
0.57417
0.579541
0.590078
0.601047
0.604969
0.645445
0.645202
0.656818
0.659075
0.659243
0.658909
0.65948
0.659505
0.65952
0.659529
0.659533
0.659533
0.659533
0.659533
0.659533
0.659533
0.659533
0.659533
0.659533
0.659533
0.659533
0.659533
0.659533
0.659533
0.659533
0.659533
0.659533
0.659533
0.659533
0.659533
0.659533
0.659533
0.659533
0.659533
0.659533
0.659533
0.659533
0.659533
0.659533
0.659533
0.659533
0.659533
0.659533
0.659533
0.659533
0.659533
0.659533
0.659533
0.659533
0.659533
0.659533
0.659533
0.659533
0.659533
0.659533
0.659533
0.659533
0.659533
0.659533
0.659533
0.659533
0.659533
0.659533
0.659533
0.659533
0.659533
0.659533
0.659533
0.659533
0.659533
0.659533
0.659533
0.659533
0.659533
0.659533
0.659533
0.659533
0.659533
0.659533
0.659533
0.659533
0.659533
0.659533
0.659533
0.659533
0.659533
0.659533
0.659533
0.659533
0.659533
0.659533
0.659533
0.659533
0.659533
0.659533
0.659533
0.659533
0.659533
0.659533
0.659533
0.659533
0.659533
0.659533
0.659533
0.659533
0.659533
0.659533
0.659533
0.659533
0.659533
0.659533
0.659533
0.659533
0.659533
0.659533
0.659533
0.659533
0.659533
0.659533
0.659533
0.659533
0.659533
0.659533
0.659533
0.659533
0.659533
0.659533
0.659533
0.659533
0.659533
0.659533
0.659533
0.659533
0.659533
0.659533
0.659533
0.659533
0.659533
0.659533
0.659533
0.659533
0.659533
0.659533
0.659533
0.659533
0.659533
0.659533
0.659533
0.659533
0.659533
0.659533
0.659533
0.659533
0.659533
0.659533
0.659533
0.659533
0.659533
0.659533
0.659533
0.659533
0.659533
0.659533
0.659533
0.659533
0.659533
0.659533
0.659533
0.659533
0.659533
0.659533
0.659533
0.659533
0.659533
0.659533
0.659533
0.659533
0.659533
0.659533
0.659533
0.659533
0.659533
0.659533
0.659533
0.659533
0.659533
0.659533
0.659533
0.659533
0.659533
0.659533
0.659533
0.659533
0.659533
0.659533
0.659533
0.659533
0.659533
0.659533
0.659533
0.659533
0.659533
0.659533
0.659533
0.659533
0.659533
0.659533
0.659533
0.659533
0.438205
0.298373
0.144329
0.659533
0.659533
0.659533
0.659533
0.417397
0.634092
0.592241
0.114206
0.659533
0.659533
0.659533
0.659533
0.659533
0.659533
0.659533
0.65621
0.658656
0.0445252
0.658997
0.657518
0.41364
0.553664
0.659533
0.659533
0.659533
0.659533
0.659533
0.659533
0.659533
0.659533
0.659533
0.659533
0.659437
0.149499
0.659529
0.659525
0.659506
0.226304
0.659533
0.659533
0.659532
0.659533
0.659533
0.659533
0.659533
0.659533
0.659533
0.659533
0.659533
0.659533
0.659533
0.659533
0.659533
0.659533
0.601681
0.659474
0.659438
0.659369
0.659433
0.65948
0.659522
0.659249
0.659531
0.659533
0.659533
0.659533
0.659533
0.659533
0.659533
0.659533
0.657725
0.659533
0.652099
0.650609
0.659533
0.659533
0.659533
0.659533
0.656198
0.655894
0.654366
0.650872
0.654165
0.656359
0.649263
0.659527
0.659526
0.659533
0.659533
0.659533
0.659458
0.659376
0.659321
0.659428
0.659504
0.659533
0.659533
0.659533
0.659533
0.659533
0.659533
0.659533
0.595104
0.571591
0.418996
0.582475
0.603889
0.604045
0.490598
0.531832
0.613889
0.59231
0.65582
0.648678
0.650711
0.658889
0.658976
0.659533
0.659522
0.659503
0.659519
0.659485
0.658908
0.659533
0.659533
0.659382
0.659533
0.659533
0.659533
0.659533
0.659533
0.659533
0.659533
0.157755
0.571526
0.61527
0.516245
0.654997
0.659533
0.659533
0.653963
0.658664
0.659533
0.659533
0.659497
0.659533
0.659533
0.659533
0.659532
0.659519
0.475813
0.659533
0.429687
0.659533
0.659533
0.644052
0.659533
0.659533
0.659533
0.659521
0.659533
0.441258
0.139068
0.650343
0.553833
0.464086
0.659533
0.336955
0.659533
0.659533
0.609462
0.659533
0.659533
0.659533
0.659533
0.659533
0.659533
0.659533
0.624568
0.622486
0.621472
0.637651
0.299898
0.582471
0.383445
0.659525
0.659528
0.659525
0.659533
0.659533
0.653385
0.658864
0.659345
0.659398
0.659374
0.658699
0.657703
0.655384
0.654521
0.614826
0.63684
0.659521
0.659521
0.576376
0.658334
0.657479
0.658899
0.659482
0.659484
0.659514
0.659533
0.659533
0.659533
0.659511
0.659532
0.659486
0.659531
0.659532
0.659524
0.659511
0.659532
0.659462
0.659439
0.65939
0.555026
0.617484
0.643421
0.65923
0.637561
0.523033
0.623917
0.653076
0.659525
0.65919
0.654497
0.653092
0.655129
0.659532
0.659533
0.659533
0.659533
0.659532
0.659429
0.659498
0.659533
0.659533
0.659529
0.659515
0.659526
0.659532
0.168972
0.237243
0.307985
0.260888
0.250641
0.158806
0.641472
0.552756
0.659437
0.657702
0.646255
0.646604
0.659533
0.659532
0.659533
0.659061
0.656928
0.65112
0.65951
0.659293
0.659268
0.65929
0.388881
0.230697
0.379911
0.512441
0.235206
0.595177
0.136898
0.576153
0.622827
0.491505
0.659398
0.659271
0.659308
0.659116
0.658916
0.652346
0.638131
0.534095
0.259009
0.622672
0.626139
0.261862
0.467033
0.477682
0.217139
0.0572193
0.395258
0.432704
0.286963
0.648527
0.628189
0.086769
0.268618
0.468441
0.654171
0.642231
0.615739
0.543505
0.658168
0.148218
0.658655
0.28374
0.243805
0.215246
0.14812
0.283037
0.630556
0.63102
0.567622
0.264163
0.481962
0.6593
0.658838
0.658099
0.659529
0.659461
0.65953
0.157118
0.469009
0.298073
0.395185
0.633266
0.101884
0.214582
0.656629
0.648217
0.631006
0.425027
0.414154
0.602593
0.551856
0.541637
0.365707
0.617012
0.505278
0.578509
0.647323
0.339516
0.659432
0.659102
0.658895
0.659229
0.658926
0.659478
0.659465
0.525071
0.646954
0.652305
0.401031
0.429723
0.215834
0.357067
0.659521
0.26335
0.428157
0.252061
0.658388
0.659533
0.538308
0.614813
0.659487
0.657648
0.594338
0.607923
0.659533
0.107643
0.659522
0.648896
0.659533
0.652014
0.655813
0.659533
0.659531
0.659531
0.659432
0.659533
0.654508
0.655522
0.659533
0.659533
0.157947
0.571794
0.659533
0.659209
0.659533
0.659322
0.659436
0.659533
0.659533
0.659526
0.659532
0.659383
0.659428
0.659533
0.659533
0.265467
0.269954
0.429344
0.623762
0.659533
0.65953
0.659533
0.659532
0.659533
0.659533
0.659533
0.659533
0.659532
0.659525
0.659533
0.60312
0.604992
0.626894
0.655138
0.659533
0.659533
0.659533
0.659521
0.659513
0.659492
0.658882
0.659477
0.659319
0.656045
0.656671
0.657997
0.659389
0.659528
0.659525
0.659529
0.659524
0.659524
0.659525
0.659524
0.658817
0.658515
0.658503
0.658826
0.657517
0.644495
0.657048
0.649361
0.658552
0.659004
0.659226
0.659213
0.659102
0.659279
0.659092
0.659169
0.646772
0.642133
0.64227
0.631783
0.543694
0.628533
0.5941
0.648246
0.651277
0.654322
0.653951
0.652654
0.654362
0.652882
0.653418
0.654068
0.653818
0.546625
0.494652
0.521634
0.484833
0.480587
0.328617
0.417801
0.502876
0.505857
0.593016
0.591085
0.619318
0.614636
0.604933
0.61215
0.6106
0.618202
0.101673
0.212137
0.0405909
0.249249
0.0620235
0.0857837
0.443194
0.358831
0.144427
0.625902
0.611558
0.176096
0.0875964
0.127551
0.0952545
0.216363
0.309409
0.150224
0.160884
0.143354
0.365481
0.398329
0.419519
0.0458571
0.235632
0.141362
0.333591
0.38693
0.426101
0.467398
0.193924
0.477348
0.494708
0.503183
0.584833
0.62295
0.608052
0.562274
0.631915
0.636811
0.473322
0.606749
0.598955
0.573965
0.639327
0.64427
0.58637
0.641692
0.639144
0.62218
0.645202
0.646786
0.655066
0.65725
0.656547
0.653541
0.658677
0.658568
0.658676
0.656244
0.65875
0.659037
0.655965
0.65918
0.659269
0.659246
0.65934
0.659226
0.659503
0.659461
0.659528